<?xml version="1.0" encoding="UTF-8"?>

<!-- generated on 2024-02-15 17:10:32 by Eclipse SUMO GUI Version v1_19_0+0722-1763996c3f5
<configuration xmlns:xsi="http://www.w3.org/2001/XMLSchema-instance" xsi:noNamespaceSchemaLocation="http://sumo.dlr.de/xsd/sumoConfiguration.xsd">

    <input>
        <net-file value="C:/Users/Bschw/Documents/sumofastdds/src/example/net.net.xml"/>
        <additional-files value="C:/Users/Bschw/Documents/sumofastdds/src/example/input_additional.add.xml"/>
    </input>

    <output>
        <write-license value="true"/>
        <vehroute-output value="C:/Users/Bschw/Documents/sumofastdds/src/example/vehroutes.xml"/>
    </output>

    <processing>
        <default.speeddev value="0"/>
    </processing>

    <report>
        <duration-log.disable value="true"/>
        <no-step-log value="true"/>
    </report>

    <traci_server>
        <remote-port value="53351"/>
    </traci_server>

</configuration>
-->

<routes xmlns:xsi="http://www.w3.org/2001/XMLSchema-instance" xsi:noNamespaceSchemaLocation="http://sumo.dlr.de/xsd/routes_file.xsd">
</routes>
